 Gaussian 09, Revision D.01,
 Gaussian 09:  EM64L-G09RevD.01 24-Apr-2013

 --------------------------------
 # opt hf/6-31g geom=connectivity
 --------------------------------

 -------------------
 Title Card Required
 -------------------
 Symbolic Z-matrix:
 Charge =  0 Multiplicity = 1

 SCF Done:  E(RHF) =  -75.9807833382     A.U. after   10 cycles
 SCF Done:  E(RHF) =  -75.9852158017     A.U. after    9 cycles
 SCF Done:  E(RHF) =  -75.9853580561     A.U. after    8 cycles
 SCF Done:  E(RHF) =  -75.9853591617     A.U. after    7 cycles
 Optimization completed.
    -- Stationary point found.

                         Standard orientation:
 ---------------------------------------------------------------------
 Center     Atomic      Atomic             Coordinates (Angstroms)
 Number     Number       Type             X           Y           Z
 ---------------------------------------------------------------------
      1          8           0        0.000000    0.000000    0.106837
      2          1           0        0.000000    0.785213   -0.427348
      3          1           0        0.000000   -0.785213   -0.427348
 ---------------------------------------------------------------------

 The electronic state is 1-A1.
 Alpha  occ. eigenvalues --  -20.55350  -1.35250  -0.72634  -0.54823  -0.49830
 Alpha virt. eigenvalues --    0.20697   0.30289   1.10543   1.16114   1.16717
 Alpha virt. eigenvalues --    1.20465   1.38892   1.67610

 Mulliken charges:
               1
     1  O   -0.811254
     2  H    0.405627
     3  H    0.405627
 Sum of Mulliken charges =   0.00000

 Dipole moment (field-independent basis, Debye):
    X=              0.0000    Y=              0.0000    Z=             -2.5006  Tot=              2.5006
 Quadrupole moment (field-independent basis, Debye-Ang):
   XX=             -7.1948   YY=             -3.8975   ZZ=             -6.3023
   XY=              0.0000   XZ=              0.0000   YZ=              0.0000

 Normal termination of Gaussian 09 at Fri Jun 14 18:27:52 2024.
