 Gaussian 09, Revision D.01,
 Gaussian 09:  EM64L-G09RevD.01 24-Apr-2013

 --------------------------------
 # opt hf/6-31g geom=connectivity
 --------------------------------

 -------------------
 Title Card Required
 -------------------
 Symbolic Z-matrix:
 Charge =  0 Multiplicity = 1

 SCF Done:  E(RHF) =  -75.7636046363     A.U. after   11 cycles
 SCF Done:  E(RHF) =  -75.8185267552     A.U. after    9 cycles
 SCF Done:  E(RHF) =  -75.9103644110     A.U. after   10 cycles
 SCF Done:  E(RHF) =  -75.9833154321     A.U. after   10 cycles
 SCF Done:  E(RHF) =  -75.9853157804     A.U. after    9 cycles
 SCF Done:  E(RHF) =  -75.9853570132     A.U. after    8 cycles
 SCF Done:  E(RHF) =  -75.9853591677     A.U. after    7 cycles
 Optimization completed.
    -- Stationary point found.

                         Standard orientation:
 ---------------------------------------------------------------------
 Center     Atomic      Atomic             Coordinates (Angstroms)
 Number     Number       Type             X           Y           Z
 ---------------------------------------------------------------------
      1          8           0        0.000000    0.000000    0.106834
      2          1           0        0.000000    0.785183   -0.427337
      3          1           0        0.000000   -0.785183   -0.427337
 ---------------------------------------------------------------------

 The electronic state is 1-A1.
 Alpha  occ. eigenvalues --  -20.55349  -1.35252  -0.72636  -0.54823  -0.49830
 Alpha virt. eigenvalues --    0.20698   0.30290   1.10544   1.16119   1.16717
 Alpha virt. eigenvalues --    1.20465   1.38893   1.67611

 Mulliken charges:
               1
     1  O   -0.811243
     2  H    0.405621
     3  H    0.405621
 Sum of Mulliken charges =   0.00000

 Dipole moment (field-independent basis, Debye):
    X=              0.0000    Y=              0.0000    Z=             -2.5006  Tot=              2.5006
 Quadrupole moment (field-independent basis, Debye-Ang):
   XX=             -7.1947   YY=             -3.8976   ZZ=             -6.3022
   XY=              0.0000   XZ=              0.0000   YZ=              0.0000

 Normal termination of Gaussian 09 at Fri Jun 14 18:28:03 2024.
