 Gaussian 09, Revision D.01,
 Gaussian 09:  EM64L-G09RevD.01 24-Apr-2013

 --------------------------------
 # opt hf/6-31g geom=connectivity
 --------------------------------

 -------------------
 Title Card Required
 -------------------
 Symbolic Z-matrix:
 Charge =  0 Multiplicity = 1

 SCF Done:  E(RHF) =  -75.3997275191     A.U. after   14 cycles
 SCF Done:  E(RHF) =  -75.4022151694     A.U. after    7 cycles
 SCF Done:  E(RHF) =  -75.4089308522     A.U. after    7 cycles
 SCF Done:  E(RHF) =  -75.4110554407     A.U. after    7 cycles
 SCF Done:  E(RHF) =  -75.4143927524     A.U. after    7 cycles
 SCF Done:  E(RHF) =  -75.4145463754     A.U. after    7 cycles
 SCF Done:  E(RHF) =  -75.3274924803     A.U. after    7 cycles
 SCF Done:  E(RHF) =  -75.4144971120     A.U. after    6 cycles
 SCF Done:  E(RHF) =  -75.4145564296     A.U. after    4 cycles
 SCF Done:  E(RHF) =  -75.4147369225     A.U. after    8 cycles
 SCF Done:  E(RHF) =  -75.4143937333     A.U. after    8 cycles
 SCF Done:  E(RHF) =  -75.4147740670     A.U. after    7 cycles
 SCF Done:  E(RHF) =  -75.4147742433     A.U. after    5 cycles
 SCF Done:  E(RHF) =  -75.4147742537     A.U. after    5 cycles
 Optimization completed.
    -- Stationary point found.

                         Standard orientation:
 ---------------------------------------------------------------------
 Center     Atomic      Atomic             Coordinates (Angstroms)
 Number     Number       Type             X           Y           Z
 ---------------------------------------------------------------------
      1          8           0        0.000000    0.000000    0.459350
      2          1           0        0.000000    1.801567   -1.837400
      3          1           0        0.000000   -1.801567   -1.837400
 ---------------------------------------------------------------------

 The electronic state is 1-A1.
 Alpha  occ. eigenvalues --  -20.71596  -1.25778  -0.58262  -0.58037  -0.26537
 Alpha virt. eigenvalues --   -0.12987   0.00015   0.92584   0.98723   1.13334
 Alpha virt. eigenvalues --    1.15132   1.15180   1.24268

 Mulliken charges:
               1
     1  O    0.009186
     2  H   -0.004593
     3  H   -0.004593
 Sum of Mulliken charges =   0.00000

 Dipole moment (field-independent basis, Debye):
    X=              0.0000    Y=              0.0000    Z=              0.0956  Tot=              0.0956
 Quadrupole moment (field-independent basis, Debye-Ang):
   XX=             -6.5382   YY=             -9.1753   ZZ=             -8.7365
   XY=              0.0000   XZ=              0.0000   YZ=              0.0000

 Normal termination of Gaussian 09 at Fri Jun 14 18:28:51 2024.
