 Gaussian 09, Revision D.01,
 Gaussian 09:  EM64L-G09RevD.01 24-Apr-2013

 --------------------------------
 # opt hf/6-31g geom=connectivity
 --------------------------------

 -------------------
 Title Card Required
 -------------------
 Symbolic Z-matrix:
 Charge =  0 Multiplicity = 1

 SCF Done:  E(RHF) =  -74.4217818816     A.U. after    9 cycles
 SCF Done:  E(RHF) =  -75.3828325368     A.U. after    9 cycles
 SCF Done:  E(RHF) =  -75.9498609471     A.U. after   11 cycles
 SCF Done:  E(RHF) =  -75.9211185478     A.U. after   11 cycles
 SCF Done:  E(RHF) =  -75.9852308517     A.U. after    9 cycles
 SCF Done:  E(RHF) =  -75.9853565935     A.U. after    9 cycles
 SCF Done:  E(RHF) =  -75.9853591394     A.U. after    7 cycles
 Optimization completed.
    -- Stationary point found.

                         Standard orientation:
 ---------------------------------------------------------------------
 Center     Atomic      Atomic             Coordinates (Angstroms)
 Number     Number       Type             X           Y           Z
 ---------------------------------------------------------------------
      1          8           0        0.000000    0.000000    0.106828
      2          1           0        0.000000    0.785301   -0.427314
      3          1           0        0.000000   -0.785301   -0.427314
 ---------------------------------------------------------------------

 The electronic state is 1-A1.
 Alpha  occ. eigenvalues --  -20.55350  -1.35246  -0.72633  -0.54820  -0.49829
 Alpha virt. eigenvalues --    0.20696   0.30288   1.10548   1.16101   1.16717
 Alpha virt. eigenvalues --    1.20465   1.38892   1.67607

 Mulliken charges:
               1
     1  O   -0.811298
     2  H    0.405649
     3  H    0.405649
 Sum of Mulliken charges =   0.00000

 Dipole moment (field-independent basis, Debye):
    X=              0.0000    Y=              0.0000    Z=             -2.5004  Tot=              2.5004
 Quadrupole moment (field-independent basis, Debye-Ang):
   XX=             -7.1949   YY=             -3.8969   ZZ=             -6.3025
   XY=              0.0000   XZ=              0.0000   YZ=              0.0000

 Normal termination of Gaussian 09 at Fri Jun 14 18:25:16 2024.
