 Gaussian 09, Revision D.01,
 Gaussian 09:  EM64L-G09RevD.01 24-Apr-2013

 --------------------------------
 # opt hf/6-31g geom=connectivity
 --------------------------------

 -------------------
 Title Card Required
 -------------------
 Symbolic Z-matrix:
 Charge =  0 Multiplicity = 1

 SCF Done:  E(RHF) =  -75.4111886135     A.U. after   14 cycles
 SCF Done:  E(RHF) =  -75.4390095284     A.U. after   11 cycles
 SCF Done:  E(RHF) =  -75.4921677132     A.U. after   12 cycles
 SCF Done:  E(RHF) =  -75.6012515076     A.U. after   11 cycles
 SCF Done:  E(RHF) =  -75.7618570498     A.U. after   10 cycles
 SCF Done:  E(RHF) =  -75.9354884562     A.U. after   10 cycles
 SCF Done:  E(RHF) =  -75.8366220320     A.U. after   10 cycles
 SCF Done:  E(RHF) =  -75.9773871815     A.U. after   10 cycles
 SCF Done:  E(RHF) =  -75.9841762212     A.U. after   10 cycles
 SCF Done:  E(RHF) =  -75.9853565198     A.U. after    9 cycles
 SCF Done:  E(RHF) =  -75.9853591662     A.U. after    7 cycles
 Optimization completed.
    -- Stationary point found.

                         Standard orientation:
 ---------------------------------------------------------------------
 Center     Atomic      Atomic             Coordinates (Angstroms)
 Number     Number       Type             X           Y           Z
 ---------------------------------------------------------------------
      1          8           0        0.000000    0.000000    0.106821
      2          1           0        0.000000    0.785149   -0.427283
      3          1           0        0.000000   -0.785149   -0.427283
 ---------------------------------------------------------------------

 The electronic state is 1-A1.
 Alpha  occ. eigenvalues --  -20.55348  -1.35255  -0.72641  -0.54824  -0.49830
 Alpha virt. eigenvalues --    0.20700   0.30292   1.10550   1.16125   1.16717
 Alpha virt. eigenvalues --    1.20464   1.38896   1.67610

 Mulliken charges:
               1
     1  O   -0.811239
     2  H    0.405620
     3  H    0.405620
 Sum of Mulliken charges =   0.00000

 Dipole moment (field-independent basis, Debye):
    X=              0.0000    Y=              0.0000    Z=             -2.5005  Tot=              2.5005
 Quadrupole moment (field-independent basis, Debye-Ang):
   XX=             -7.1946   YY=             -3.8976   ZZ=             -6.3023
   XY=              0.0000   XZ=              0.0000   YZ=              0.0000

 Normal termination of Gaussian 09 at Fri Jun 14 18:28:18 2024.
