 Gaussian 09, Revision D.01,
 Gaussian 09:  EM64L-G09RevD.01 24-Apr-2013

 --------------------------------
 # opt hf/6-31g geom=connectivity
 --------------------------------

 -------------------
 Title Card Required
 -------------------
 Symbolic Z-matrix:
 Charge =  0 Multiplicity = 1

 SCF Done:  E(RHF) =  -75.3940490271     A.U. after   14 cycles
 SCF Done:  E(RHF) =  -75.3960027527     A.U. after    7 cycles
 SCF Done:  E(RHF) =  -75.4018405598     A.U. after    7 cycles
 SCF Done:  E(RHF) =  -75.4142747145     A.U. after    7 cycles
 SCF Done:  E(RHF) =  -75.4143323551     A.U. after    7 cycles
 SCF Done:  E(RHF) =  -75.3252585761     A.U. after    7 cycles
 SCF Done:  E(RHF) =  -75.4141924533     A.U. after    6 cycles
 SCF Done:  E(RHF) =  -75.4144315567     A.U. after    4 cycles
 SCF Done:  E(RHF) =  -75.4145465003     A.U. after    7 cycles
 SCF Done:  E(RHF) =  -75.4147246119     A.U. after    8 cycles
 SCF Done:  E(RHF) =  -75.4147710989     A.U. after    8 cycles
 SCF Done:  E(RHF) =  -75.4147739675     A.U. after    7 cycles
 SCF Done:  E(RHF) =  -75.4147742504     A.U. after    7 cycles
 Optimization completed.
    -- Stationary point found.

                         Standard orientation:
 ---------------------------------------------------------------------
 Center     Atomic      Atomic             Coordinates (Angstroms)
 Number     Number       Type             X           Y           Z
 ---------------------------------------------------------------------
      1          8           0        0.000000    0.000000    0.459149
      2          1           0        0.000000    1.801396   -1.836598
      3          1           0        0.000000   -1.801396   -1.836598
 ---------------------------------------------------------------------

 The electronic state is 1-A1.
 Alpha  occ. eigenvalues --  -20.71597  -1.25779  -0.58263  -0.58037  -0.26536
 Alpha virt. eigenvalues --   -0.12985   0.00014   0.92582   0.98722   1.13334
 Alpha virt. eigenvalues --    1.15131   1.15187   1.24278

 Mulliken charges:
               1
     1  O    0.009211
     2  H   -0.004606
     3  H   -0.004606
 Sum of Mulliken charges =   0.00000

 Dipole moment (field-independent basis, Debye):
    X=              0.0000    Y=              0.0000    Z=              0.0959  Tot=              0.0959
 Quadrupole moment (field-independent basis, Debye-Ang):
   XX=             -6.5382   YY=             -9.1758   ZZ=             -8.7367
   XY=              0.0000   XZ=              0.0000   YZ=              0.0000

 Normal termination of Gaussian 09 at Fri Jun 14 18:28:59 2024.
