 Gaussian 09, Revision D.01,
 Gaussian 09:  EM64L-G09RevD.01 24-Apr-2013

 --------------------------------
 # opt hf/6-31g geom=connectivity
 --------------------------------

 -------------------
 Title Card Required
 -------------------
 Symbolic Z-matrix:
 Charge =  0 Multiplicity = 1

 SCF Done:  E(RHF) =  -75.5564079383     A.U. after   14 cycles
 SCF Done:  E(RHF) =  -75.5975503730     A.U. after   11 cycles
 SCF Done:  E(RHF) =  -75.6746723543     A.U. after   10 cycles
 SCF Done:  E(RHF) =  -75.8222890143     A.U. after   10 cycles
 SCF Done:  E(RHF) =  -75.9757697372     A.U. after   10 cycles
 SCF Done:  E(RHF) =  -75.9836783967     A.U. after   10 cycles
 SCF Done:  E(RHF) =  -75.9846014370     A.U. after    9 cycles
 SCF Done:  E(RHF) =  -75.9853580945     A.U. after    8 cycles
 SCF Done:  E(RHF) =  -75.9853591667     A.U. after    7 cycles
 Optimization completed.
    -- Stationary point found.

                         Standard orientation:
 ---------------------------------------------------------------------
 Center     Atomic      Atomic             Coordinates (Angstroms)
 Number     Number       Type             X           Y           Z
 ---------------------------------------------------------------------
      1          8           0        0.000000    0.000000    0.106841
      2          1           0        0.000000    0.785165   -0.427364
      3          1           0        0.000000   -0.785165   -0.427364
 ---------------------------------------------------------------------

 The electronic state is 1-A1.
 Alpha  occ. eigenvalues --  -20.55350  -1.35252  -0.72635  -0.54824  -0.49830
 Alpha virt. eigenvalues --    0.20698   0.30290   1.10540   1.16121   1.16716
 Alpha virt. eigenvalues --    1.20465   1.38893   1.67612

 Mulliken charges:
               1
     1  O   -0.811229
     2  H    0.405615
     3  H    0.405615
 Sum of Mulliken charges =   0.00000

 Dipole moment (field-independent basis, Debye):
    X=              0.0000    Y=              0.0000    Z=             -2.5007  Tot=              2.5007
 Quadrupole moment (field-independent basis, Debye-Ang):
   XX=             -7.1947   YY=             -3.8978   ZZ=             -6.3021
   XY=              0.0000   XZ=              0.0000   YZ=              0.0000

 Normal termination of Gaussian 09 at Fri Jun 14 18:28:09 2024.
